13
Properties=species:S:1:pos:R:3:momenta:R:3:forces:R:3:energies:R:1 energy=6.5983076398569 free_energy=6.5983076398569 pbc="F F F"
Au       1.93053528       2.69579088      11.81717198       0.00000000       0.00000000       0.00000000       0.00581191       0.00863030       0.00462219       0.48659885
Au       4.15203452       2.70211572      13.51142053       0.00000000       0.00000000       0.00000000      -0.00138869      -0.02845087      -0.02337361       0.48800244
Au       5.95801168       0.78899515      12.55417327       0.00000000       0.00000000       0.00000000      -0.01434562       0.00796502      -0.00079002       0.48971180
Au       4.47841092       2.35847803      10.76423376       0.00000000       0.00000000       0.00000000       0.01576984      -0.02159941       0.01306366       0.48852342
Au       4.72776956      -1.72090493      12.71869922       0.00000000       0.00000000       0.00000000       0.00955826       0.04633962       0.01122528       0.48874795
Au       2.37407713       0.78890141       9.81927794       0.00000000       0.00000000       0.00000000      -0.00132067       0.02839402      -0.02707890       0.48477421
Au       3.34359911       0.49792174      12.27212590       0.00000000       0.00000000       0.00000000       0.00976557      -0.00545298       0.00608036       0.75125245
Au       2.53341788      -1.70560404      11.02813471       0.00000000       0.00000000       0.00000000      -0.00802741      -0.01760506       0.00046400       0.48430483
Au       0.72626329       0.19553102      11.97070034       0.00000000       0.00000000       0.00000000      -0.02513890      -0.00332336       0.02271620       0.48576514
Au       4.85985075      -0.36895584      10.27550950       0.00000000       0.00000000       0.00000000       0.00697592       0.00275180       0.01493104       0.48710078
Au       1.82905890       1.36703439      14.26685034       0.00000000       0.00000000       0.00000000      -0.00687048      -0.00004980      -0.00672776       0.48715907
Au       4.31344120       0.20213567      14.72047008       0.00000000       0.00000000       0.00000000      -0.00738035      -0.02219332      -0.02232705       0.48879008
Au       2.17943611      -1.35090060      13.77371322       0.00000000       0.00000000       0.00000000       0.01659061       0.00459404       0.00719462       0.48757663
